      96
 i =      200, E =        -0.6803072441
  O        -4.4562561312        5.4732521598        1.4581438055
  H        -3.6894339757        5.5853888686        0.8531661623
  H        -5.0665503485        4.9510235376        0.8961748379
  O         0.0526786965        4.3699349981        0.1848220055
  H        -0.1917796307        3.5335072271        0.6372578624
  H         0.2645380439        4.0319889211       -0.7134294657
  O        -1.5840545392        2.3975624142        4.1182863333
  H        -2.4602510674        1.9609506364        4.0396669539
  H        -1.2183267836        1.9291333826        4.8984003136
  O        -2.6795164784       -2.3840200045       -5.6637698463
  H        -2.0015566197       -2.0955288148       -6.3123279762
  H        -2.3021294624       -3.2446127754       -5.3767178847
  O         4.0559710376        0.0451334554        2.1545946195
  H         4.2025328118       -0.1766055165        1.2085378154
  H         4.1655104113       -0.8480156328        2.5490424928
  O         2.8178517329       -3.1738228436       -0.1619951650
  H         2.2327075656       -3.1482008841        0.6237890909
  H         3.0856198132       -4.1155261615       -0.1384736370
  O        -2.6226716851       -5.6291407281       -2.4329417626
  H        -2.3370413239       -6.4301498451       -1.9354151157
  H        -2.6100961061       -4.9762568753       -1.7015753265
  O        -0.6195991432        1.2384827811       -3.4243637540
  H        -0.1659465532        1.9858322446       -2.9759030125
  H        -1.2315328669        0.9781948541       -2.7208339872
  O         4.9215687621        3.9334702131        3.6578034192
  H         3.9649886705        4.1161075201        3.5416147904
  H         5.2865886496        4.5021993549        2.9465851789
  O         5.7755329519        1.3432344659        3.8755742144
  H         5.4223311120        2.2591938344        3.8281139780
  H         5.2012197759        0.9013384222        3.2138943880
  O         0.7191329569       -0.1847910791       -5.4026527315
  H         1.3473595506       -0.8337693342       -5.0166290771
  H         0.2875778262        0.1897476976       -4.6036828943
  O        -0.5712173977        2.1203303543        1.5627423558
  H         0.3076727210        1.8147784766        1.8681234226
  H        -1.0169957791        2.2340172480        2.4304375303
  O         3.6265719156       -0.2909063007       -2.9148780628
  H         4.5137860110       -0.3281652166       -3.3326972861
  H         3.1474429270       -0.9333594886       -3.4808117081
  O        -1.9345830365        2.1092714124       -0.8527480989
  H        -1.5022777470        2.0430900292        0.0232028105
  H        -2.4062869268        1.2522667803       -0.8953091886
  O        -0.6242149247       -1.5805964068        2.5099992825
  H         0.0429313062       -2.2848252767        2.3469750858
  H        -0.1479251738       -1.0065077407        3.1472920588
  O         0.7643559142        3.3563661732       -2.3059281551
  H         0.9854429347        4.0369187035       -2.9690157096
  H         1.6423693876        2.9480185057       -2.1344744124
  O         4.8096143905       -6.3036846649       -3.4871424219
  H         5.6721780552       -6.0034095775       -3.1333632247
  H         4.9131214375       -6.1073503599       -4.4386939551
  O        -3.7126884271       -0.4755388380       -3.9726994807
  H        -3.3010592388       -1.1921935220       -4.5049812482
  H        -3.7887577051        0.2240110567       -4.6588346216
  O        -1.6337398803        5.0411912397       -4.8486694727
  H        -1.6700766006        4.1748138423       -5.3057630297
  H        -2.0185513088        4.7929951017       -3.9769577766
  O         3.1838231583        2.2269573750       -1.8422074881
  H         3.2801268741        1.3091897136       -2.1750071460
  H         3.8022619929        2.6943653671       -2.4564746947
  O         1.0772991486       -3.6385648132        1.9013599240
  H         0.6301996106       -4.2641279639        1.2873674866
  H         1.5373277947       -4.2741667196        2.4898179380
  O         1.8649759361        1.5954457832        2.7578828479
  H         2.6638526596        1.0868618326        2.4929189070
  H         1.4683263071        0.9619485979        3.3981833440
  O         2.6224020773       -2.0791856404       -4.7793616351
  H         2.2433950750       -2.9673236501       -4.6559586888
  H         3.3079810166       -2.2516253036       -5.4619476027
  O         6.8778626275       -0.3388141933       -1.3251246874
  H         6.0299501982       -0.5945982221       -0.8983025169
  H         6.6381659290       -0.4440397938       -2.2732351577
  O        -5.2374233422       -2.4253091539        3.2055923574
  H        -4.3490031945       -2.3949440890        3.6249555886
  H        -5.0609552414       -3.1038312147        2.5172670324
  O         1.0122185397       -4.4577002059        5.6211241232
  H         0.9422787468       -3.8466162956        6.3984439059
  H         0.0685100228       -4.4882792904        5.3440020007
  O         2.2122646511        4.2485251294        3.4078909194
  H         1.9676250171        3.3019044276        3.3087346533
  H         1.8036977495        4.4909278570        4.2671671056
  O        -2.2611734874       -4.0966125971       -0.1789604726
  H        -1.4634900622       -4.6259953328        0.0344258188
  H        -1.8466037976       -3.2126149408       -0.2643414573
  O         0.8575339933       -2.8742888191       -2.0848989153
  H         0.2054463229       -2.4183534013       -1.5133004231
  H         1.6239348693       -2.9128795312       -1.4788022069
  O         4.3782559195       -0.9558622033       -0.3848792260
  H         3.9033319254       -1.8103540244       -0.2731273491
  H         3.9812535812       -0.6571409094       -1.2315094273
  O        -0.8888417688       -1.7298765793       -0.2746158355
  H        -1.5797258244       -1.1183852921       -0.6086327096
  H        -0.8358938315       -1.4797717969        0.6708859290
  O         3.4141536923        4.0010592828        0.2604865310
  H         2.9044189794        3.5264433418        0.9311124044
  H         3.3941556271        3.3558652439       -0.4814924960
